ITEM: TIMESTEP
0
ITEM: NUMBER OF ATOMS
1912
ITEM: BOX BOUNDS ss ss pp
-2.0263556288448395e-01 5.6515440840563805e+01
-3.5200000000000006e-03 3.4849742176873065e+01
0.0000000000000000e+00 9.9560630400000001e+00
ITEM: ATOMS id x y z
1 1.76 0 2.48902
17 0 1.24451 1.24451
18 1.76 0 0
20 1.76 2.48902 0
150 1.76 2.48902 2.48902
19 3.52 1.24451 1.24451
2 5.28 0 2.48902
21 5.28 0 0
22 7.04 1.24451 1.24451
23 5.28 2.48902 0
154 5.28 2.48902 2.48902
3 8.8 0 2.48902
24 8.8 0 0
26 8.8 2.48902 0
158 8.8 2.48902 2.48902
4 12.32 0 2.48902
25 10.56 1.24451 1.24451
27 12.32 0 0
29 12.32 2.48902 0
162 12.32 2.48902 2.48902
28 14.08 1.24451 1.24451
5 15.84 0 2.48902
30 15.84 0 0
31 17.6 1.24451 1.24451
32 15.84 2.48902 0
166 15.84 2.48902 2.48902
6 19.36 0 2.48902
33 19.36 0 0
35 19.36 2.48902 0
170 19.36 2.48902 2.48902
7 22.88 0 2.48902
34 21.12 1.24451 1.24451
36 22.88 0 0
38 22.88 2.48902 0
174 22.88 2.48902 2.48902
37 24.64 1.24451 1.24451
8 26.4 0 2.48902
39 26.4 0 0
41 26.4 2.48902 0
178 26.4 2.48902 2.48902
40 28.16 1.24451 1.24451
9 29.92 0 2.48902
42 29.92 0 0
44 29.92 2.48902 0
182 29.92 2.48902 2.48902
43 31.68 1.24451 1.24451
10 33.44 0 2.48902
45 33.44 0 0
46 35.2 1.24451 1.24451
47 33.44 2.48902 0
186 33.44 2.48902 2.48902
11 36.96 0 2.48902
48 36.96 0 0
50 36.96 2.48902 0
190 36.96 2.48902 2.48902
12 40.48 0 2.48902
49 38.72 1.24451 1.24451
51 40.48 0 0
53 40.48 2.48902 0
194 40.48 2.48902 2.48902
52 42.24 1.24451 1.24451
13 44 0 2.48902
54 44 0 0
55 45.76 1.24451 1.24451
56 44 2.48902 0
198 44 2.48902 2.48902
14 47.52 0 2.48902
57 47.52 0 0
59 47.52 2.48902 0
202 47.52 2.48902 2.48902
15 51.04 0 2.48902
58 49.28 1.24451 1.24451
60 51.04 0 0
62 51.04 2.48902 0
206 51.04 2.48902 2.48902
61 52.8 1.24451 1.24451
16 54.56 0 2.48902
63 54.56 0 0
64 56.32 1.24451 1.24451
65 54.56 2.48902 0
210 54.56 2.48902 2.48902
148 0 3.73352 1.24451
153 1.82279 4.94263 2.55713
215 1.65196 5.00837 0.0119322
151 3.52 3.73352 1.24451
155 7.04 3.73352 1.24451
157 5.30695 4.96086 2.54842
218 5.21797 4.94623 0.0747424
161 8.74064 4.97239 2.58278
221 8.69207 5.02129 0.0524369
159 10.56 3.73352 1.24451
165 12.3432 4.91277 2.60318
224 12.3048 5.08241 0.0526329
163 14.08 3.73352 1.24451
167 17.6 3.73352 1.24451
169 15.7824 4.90971 2.49568
227 15.7915 5.03989 0.0835917
173 19.3446 5.01013 2.46041
230 19.37 5.00548 0.0124857
171 21.12 3.73352 1.24451
177 22.8272 5.04621 2.47687
175 24.64 3.73352 1.24451
181 26.4033 4.98884 2.48628
179 28.16 3.73352 1.24451
185 29.8959 4.96943 2.45803
183 31.68 3.73352 1.24451
189 33.5392 4.93613 2.55868
187 35.2 3.73352 1.24451
242 33.4727 4.99113 0.0419239
193 36.8894 4.95002 2.4473
191 38.72 3.73352 1.24451
197 40.3927 5.00911 2.45022
248 40.4764 4.94892 0.0760298
195 42.24 3.73352 1.24451
199 45.76 3.73352 1.24451
201 44.0244 4.92341 2.54114
205 47.4213 4.98321 2.40836
254 47.6277 4.95186 0.0574039
203 49.28 3.73352 1.24451
209 51.0401 4.91391 2.4478
207 52.8 3.73352 1.24451
211 56.32 3.73352 1.24451
213 54.5224 4.94351 2.3593
214 0.0344403 6.21159 1.30251
414 1.77491 7.40998 2.44979
217 1.74322 7.57108 0.0179941
216 3.44387 6.15965 1.28531
219 7.03797 6.206 1.22859
418 5.15595 7.35495 2.49392
220 5.12456 7.30659 0.0410016
422 8.81256 7.34929 2.454
222 10.5351 6.17581 1.31564
226 12.2521 7.48748 0.0355312
426 12.2724 7.42441 2.53342
225 14.0068 6.27266 1.25996
228 17.5096 6.14124 1.21023
430 15.7847 7.42172 2.4564
434 19.3459 7.42532 2.41294
232 19.2226 7.49948 0.027047
231 21.0428 6.1834 1.24337
438 22.9273 7.50752 2.49511
235 22.8784 7.51648 0.112295
234 24.7182 6.1981 1.31434
442 26.4072 7.4218 2.65954
237 28.0989 6.15122 1.26019
238 26.3896 7.37038 0.133667
446 29.9579 7.43848 2.56185
241 29.8564 7.53534 0.10638
240 31.7135 6.27629 1.27841
243 35.1924 6.2183 1.33111
450 33.5082 7.44911 2.53385
244 33.4957 7.45527 0.0398866
454 36.8308 7.39356 2.50434
247 37.0651 7.40516 0.00970725
246 38.726 6.29616 1.24106
458 40.4798 7.45083 2.44862
249 42.1885 6.25797 1.18097
252 45.7169 6.16203 1.2412
462 43.989 7.51379 2.54793
253 43.9174 7.34109 0.0701089
466 47.5062 7.39886 2.4786
256 47.5627 7.4876 0.0230927
255 49.3487 6.25844 1.24758
470 51.0356 7.49609 2.485
258 52.7847 6.24211 1.10133
261 56.3062 6.23265 1.18831
474 54.4953 7.45169 2.4086
412 0.00586143 8.65403 1.08448
417 1.63881 9.88306 2.39908
415 3.48656 8.70732 1.19808
419 7.00458 8.57797 1.14582
421 5.19136 9.80641 2.45326
425 8.66448 9.79497 2.50134
423 10.5724 8.67499 1.20206
429 12.2552 9.9932 2.61185
427 13.899 8.78115 1.29843
431 17.531 8.71415 1.23704
433 15.7848 10.0258 2.43001
491 15.7803 10.1414 0.0114823
437 19.3602 9.87745 2.36671
435 21.1244 8.75524 1.17953
441 22.9481 9.98626 2.31349
439 24.7654 8.78022 1.26178
445 26.3911 10.0032 2.44271
443 28.0245 8.67425 1.36587
449 30.0074 10.0066 2.52423
503 29.8828 9.99872 0.0508146
447 31.6957 8.68214 1.28199
451 35.1777 8.638 1.27085
453 33.4401 9.85421 2.60513
457 36.9011 9.975 2.4085
509 36.9473 9.94334 0.0259838
455 38.7748 8.66716 1.22124
461 40.4993 9.92013 2.48298
459 42.2661 8.73169 1.23068
463 45.8096 8.59754 1.19811
465 44.0485 9.9223 2.46943
515 44.0007 10.0178 0.014688
469 47.6318 9.85488 2.45698
467 49.3697 8.70774 1.19214
473 51.0861 9.91951 2.41805
471 52.8185 8.81382 1.21986
475 56.3747 8.68458 1.18532
477 54.618 9.90053 2.32796
478 0.0473417 11.141 1.05757
678 1.66595 12.4266 2.31618
480 3.41392 11.1387 1.17774
483 7.08095 11.0592 1.1677
484 5.2447 12.4216 0.06283
682 5.18255 12.424 2.38109
686 8.71806 12.2842 2.48168
486 10.5702 11.1852 1.2097
690 12.3279 12.4147 2.43544
490 12.1286 12.4338 0.00842286
489 14.0836 11.2684 1.19729
492 17.5714 11.2182 1.21959
694 15.8845 12.5133 2.32196
698 19.4069 12.3221 2.44737
495 21.0159 11.0871 1.25438
702 22.8215 12.4664 2.29385
498 24.6136 11.2289 1.2006
706 26.3332 12.3792 2.35356
501 28.1253 11.2229 1.20065
710 30.0183 12.3579 2.61584
505 29.9745 12.4555 0.114534
504 31.7553 11.1731 1.24745
714 33.3986 12.5304 2.56341
508 33.4604 12.4689 0.0351562
507 35.1511 11.1371 1.36925
718 36.835 12.4619 2.58719
511 36.9849 12.5088 0.0795621
510 38.7762 11.1965 1.32656
722 40.4316 12.4257 2.61854
514 40.5696 12.4953 0.159185
513 42.4107 11.21 1.4142
516 45.8781 10.9723 1.19103
726 44.0228 12.4542 2.51287
517 44.1998 12.4921 0.030811
730 47.5481 12.2953 2.48914
519 49.2342 11.0882 1.2686
734 51.1054 12.3892 2.47422
522 52.7333 11.2206 1.18193
525 56.3166 11.1919 1.14207
738 54.5087 12.4514 2.35395
676 0.0507445 13.6228 1.02632
681 1.79474 14.9301 2.24161
679 3.47381 13.6383 1.1282
683 7.09247 13.652 1.26784
685 5.30933 14.9328 2.39682
746 5.3316 14.9364 0.00670182
689 8.90484 14.8527 2.48468
687 10.4728 13.6105 1.26314
693 12.3351 15.0142 2.3986
691 14.0517 13.7658 1.13063
695 17.5967 13.6696 1.06386
697 15.8409 14.8871 2.3873
701 19.338 14.8652 2.49124
699 21.1172 13.7292 1.14861
705 22.9561 14.9987 2.4631
703 24.5474 13.7492 1.06809
709 26.2584 14.9155 2.45901
707 28.1766 13.6546 1.22236
713 29.9651 14.918 2.50808
767 29.852 14.9381 0.0696083
711 31.7189 13.6994 1.29215
717 33.3841 14.9976 2.57244
715 35.2017 13.776 1.33219
770 33.4267 14.9991 0.0514192
721 36.9312 14.9263 2.6285
773 36.9502 14.9315 0.040418
719 38.7162 13.6944 1.35094
725 40.565 14.8803 2.66333
776 40.5116 14.9565 0.0745424
723 42.1919 13.6918 1.37297
727 45.9434 13.6572 1.27531
729 44.0192 14.8499 2.60694
779 44.0489 14.9501 0.124573
733 47.5559 14.9014 2.49999
731 49.191 13.5855 1.22125
737 50.8411 14.8013 2.53027
785 51.0924 14.8955 0.0577505
735 52.7619 13.5873 1.25801
786 52.7525 16.0542 1.22926
739 56.4163 13.6097 1.26577
741 54.5399 14.9226 2.33135
742 -0.169195 16.1414 1.08118
942 1.61925 17.4191 2.40104
940 0.0451001 18.6536 1.09531
745 1.7935 17.2989 0.0620983
744 3.51527 16.1659 1.157
943 3.43524 18.6658 1.12252
747 7.03288 16.2114 1.19557
946 5.25569 17.355 2.40618
947 7.10629 18.626 1.13697
950 8.87894 17.4009 2.41472
750 10.5508 16.2302 1.24128
951 10.6206 18.7315 1.18987
954 12.3568 17.5457 2.53339
753 14.0036 16.2148 1.17857
955 14.1374 18.6824 1.19437
756 17.6156 16.2364 1.21145
958 15.8757 17.4219 2.41846
959 17.5891 18.7548 1.28005
962 19.2963 17.4587 2.48506
759 21.0746 16.1941 1.32041
963 21.109 18.5958 1.32505
966 22.8957 17.4595 2.59904
763 22.8077 17.485 0.122859
762 24.6551 16.1325 1.2133
967 24.7378 18.6416 1.22428
970 26.2731 17.3863 2.50868
971 28.1352 18.5468 1.19895
765 28.0282 16.1728 1.21448
974 29.8694 17.3397 2.55426
769 29.7992 17.3625 0.101876
768 31.6279 16.2398 1.2261
975 31.5754 18.6637 1.26677
978 33.3923 17.4443 2.45865
771 35.1254 16.1623 1.26298
979 35.148 18.6866 1.26433
982 36.9229 17.3627 2.60338
775 36.9358 17.4092 0.144396
983 38.8268 18.6188 1.22401
774 38.7894 16.2018 1.35909
986 40.5553 17.3895 2.54323
778 40.5704 17.3389 0.0508714
777 42.2833 16.1126 1.27805
987 42.2204 18.5947 1.29715
780 45.7918 16.1315 1.25686
990 44.0343 17.2731 2.53328
991 45.6645 18.6599 1.21905
781 44.0483 17.3889 0.00188027
994 47.5517 17.4364 2.5377
784 47.5607 17.4251 0.113155
783 49.2066 16.1336 1.30806
995 49.3337 18.6117 1.31939
998 50.9642 17.316 2.57187
787 51.0038 17.4236 0.0267996
999 52.7139 18.4502 1.29999
789 56.3239 16.1289 1.34156
1002 54.518 17.328 2.5128
1003 56.2251 18.5045 1.25836
945 1.75598 19.943 2.34614
1006 -0.074148 21.1491 1.15896
1008 3.42797 21.191 1.04022
949 5.19664 19.8027 2.38938
1011 7.02047 21.1218 1.29382
953 8.84075 19.9745 2.47852
957 12.3903 19.8649 2.46778
1014 10.664 21.06 1.2152
1017 14.073 21.2404 1.28904
961 15.9376 19.9565 2.48106
1020 17.6546 21.164 1.33218
965 19.3535 19.9541 2.65953
1022 19.4105 19.9694 0.10126
969 22.9635 19.8545 2.52183
1023 21.1558 21.1637 1.3559
1025 22.8184 19.9461 0.106562
1026 24.5618 21.1626 1.17017
973 26.4127 19.8731 2.48472
1029 28.2409 21.0874 1.23549
977 29.9155 19.8798 2.50704
1032 31.6049 21.0695 1.28693
981 33.4438 19.9209 2.55165
1035 35.2808 21.176 1.44728
1034 33.3261 19.9118 0.0551708
985 36.921 19.7928 2.61012
1037 36.9311 19.8805 0.132844
989 40.5425 19.8407 2.58808
1038 38.5967 21.1149 1.2869
1040 40.4302 19.9549 0.0566001
1041 42.2139 21.1157 1.26653
993 43.9948 19.8912 2.5498
1044 45.7344 21.1008 1.27705
997 47.4503 19.9218 2.51939
1046 47.5312 19.8783 0.125281
1001 51.0551 19.8769 2.65938
1047 49.2794 21.1241 1.30959
1049 51.0805 19.8776 0.127414
1050 52.862 20.9377 1.32979
1005 54.4765 19.6889 2.58016
1053 56.2515 20.8311 1.25903
1052 54.6141 19.6964 0.021263
1204 -0.15261 23.5585 1.21964
1206 1.73435 22.4661 2.30746
1207 3.54955 23.6116 1.19323
1210 5.30261 22.2581 2.29952
1211 6.95354 23.5068 1.16901
1214 8.68568 22.4477 2.50723
1215 10.6291 23.5971 1.3356
1218 12.3967 22.4856 2.55879
1018 12.3719 22.386 0.0790303
1219 14.0655 23.6548 1.24402
1222 15.8878 22.4889 2.48927
1223 17.7518 23.6428 1.30892
1021 15.7988 22.3559 0.148974
1226 19.4699 22.4446 2.61276
1024 19.4445 22.3992 0.0430015
1027 22.8277 22.4337 0.127607
1227 21.0915 23.6202 1.33404
1230 22.7777 22.4055 2.56658
1231 24.649 23.5576 1.38526
1234 26.5622 22.3334 2.54607
1235 28.1378 23.5792 1.2491
1030 26.3616 22.3502 0.0308434
1238 29.8814 22.3589 2.42533
1239 31.7499 23.5915 1.38386
1242 33.4841 22.3328 2.67638
1243 35.2499 23.6405 1.38472
1036 33.44 22.3456 0.169761
1039 36.9164 22.3365 0.0461048
1246 36.8946 22.4518 2.56016
1247 38.6223 23.7369 1.2932
1250 40.353 22.2968 2.50575
1251 42.176 23.6055 1.31867
1254 43.9538 22.4334 2.52793
1255 45.801 23.6395 1.32654
1045 44.0019 22.4158 0.0551118
1258 47.496 22.4472 2.56973
1048 47.5866 22.352 0.0943089
1259 49.3804 23.5582 1.3565
1262 51.0373 22.2698 2.5225
1051 51.1779 22.3229 0.0832857
1263 52.9376 23.5597 1.26197
1266 54.6189 22.1734 2.5982
1267 56.5098 23.5413 1.24576
1209 1.73219 24.8509 2.50475
1270 0.0987398 26.2651 1.39383
1272 3.60116 26.0704 1.23872
1213 5.3562 24.9031 2.40908
1275 6.97259 26.0555 1.3233
1217 8.8826 24.9234 2.54283
1277 8.80574 24.8855 0.0807726
1221 12.3893 24.9091 2.63269
1278 10.6141 26.1007 1.27654
1280 12.3493 24.8782 0.115804
1281 14.0742 26.1436 1.28721
1225 15.7715 24.9243 2.54158
1284 17.6943 26.1113 1.28857
1229 19.2912 24.8871 2.65164
1286 19.4451 24.8599 0.190696
1233 22.9536 24.9076 2.59317
1287 21.0604 26.0661 1.43329
1289 22.9219 24.9139 0.177475
1290 24.6745 26.0645 1.4227
1237 26.384 24.8015 2.52167
1292 26.437 24.8623 0.112945
1293 28.2366 26.1192 1.28348
1241 29.8997 24.9189 2.49783
1295 29.9158 24.8839 0.118221
1296 31.6197 26.2079 1.20261
1245 33.3826 24.9939 2.57673
1299 35.125 26.1808 1.33458
1298 33.3598 24.8926 0.0557622
1249 36.9144 24.9415 2.38962
1253 40.4374 24.8376 2.4885
1302 38.6177 26.1866 1.15903
1305 42.091 26.0547 1.27303
1257 43.9035 24.7718 2.66397
1308 45.7391 26.0799 1.20536
1307 43.9689 24.8739 0.154514
1261 47.5933 24.9322 2.53999
1310 47.5932 24.8479 0.0703539
1265 51.0736 24.7377 2.4615
1311 49.2967 26.0037 1.27954
1313 51.1931 24.8208 0.0508858
1314 52.7425 26.1433 1.32356
1269 54.636 24.8 2.50636
1317 56.4611 26.1482 1.30259
1316 54.6332 25.0224 0.0255795
1273 1.76991 27.3551 0.0458364
1468 0.0195701 28.6134 1.11721
1470 1.88952 27.461 2.62682
1471 3.5546 28.5782 1.17257
1474 5.28194 27.4673 2.54064
1475 7.04897 28.615 1.45184
1276 5.27296 27.2596 0.0880392
1478 8.81837 27.3489 2.56314
1279 8.70397 27.3869 0.146875
1479 10.5133 28.6432 1.32128
1482 12.356 27.319 2.49413
1483 14.0366 28.6586 1.34937
1486 15.9124 27.3288 2.52892
1487 17.6553 28.6286 1.26722
1285 15.8654 27.4325 0.0794611
1288 19.4891 27.4735 0.0700515
1490 19.3321 27.4493 2.65665
1291 22.8387 27.3762 0.0420197
1491 21.12 28.6828 1.24021
1494 22.9339 27.3733 2.51172
1495 24.6647 28.5538 1.25311
1498 26.5025 27.2976 2.50086
1499 28.1503 28.6921 1.22885
1294 26.4284 27.3124 0.0326715
1502 29.8843 27.5138 2.41007
1503 31.643 28.6283 1.29697
1506 33.4345 27.381 2.43563
1507 35.1656 28.7408 1.22196
1300 33.3948 27.3697 0.0591819
1510 36.972 27.3845 2.49646
1511 38.7146 28.6317 1.2216
1514 40.3741 27.3389 2.434
1515 42.2003 28.6081 1.3225
1518 43.8567 27.2084 2.49684
1519 45.7472 28.6004 1.17859
1309 43.9646 27.4967 0.0375365
1522 47.5013 27.4402 2.36063
1523 49.2736 28.6031 1.32602
1526 51.024 27.3848 2.50083
1527 52.8782 28.5952 1.2241
1530 54.6198 27.411 2.32495
1531 56.3773 28.7108 1.301
1473 1.70902 29.8585 2.48211
1534 0 31.1127 1.24451
1536 3.52 31.1127 1.24451
1477 5.32006 29.9078 2.45189
1539 7.04 31.1127 1.24451
1481 8.87036 29.7892 2.54254
1541 8.79187 29.862 0.0226086
1485 12.335 29.9534 2.48427
1542 10.56 31.1127 1.24451
1545 14.08 31.1127 1.24451
1489 15.7892 29.8345 2.47059
1548 17.6 31.1127 1.24451
1547 15.7871 29.9178 0.102629
1493 19.4172 29.8919 2.43813
1550 19.4119 29.8666 0.0422793
1497 22.9172 29.8302 2.47051
1551 21.12 31.1127 1.24451
1553 22.8525 29.9792 0.0374284
1554 24.64 31.1127 1.24451
1501 26.272 29.7958 2.48199
1557 28.16 31.1127 1.24451
1505 29.9583 29.8521 2.51384
1560 31.68 31.1127 1.24451
1509 33.3729 29.8866 2.46778
1563 35.2 31.1127 1.24451
1513 36.9901 29.861 2.38907
1517 40.3881 29.9043 2.47336
1566 38.72 31.1127 1.24451
1568 40.4248 29.8301 0.00136599
1569 42.24 31.1127 1.24451
1521 44.0489 29.7811 2.56937
1572 45.76 31.1127 1.24451
1525 47.4131 29.8574 2.44091
1574 47.5455 29.9013 0.0312029
1529 51.0532 29.8739 2.49142
1575 49.28 31.1127 1.24451
1577 51.0959 29.818 0.0726401
1578 52.8 31.1127 1.24451
1533 54.5825 29.9246 2.54096
1581 56.32 31.1127 1.24451
1580 54.5602 29.8985 0.0540804
1537 1.76 32.3572 0
1732 0 33.6017 1.24451
1734 1.76 32.3572 2.48902
1737 1.76 34.8462 2.48902
1798 1.76 34.8462 0
1735 3.52 33.6017 1.24451
1540 5.28 32.3572 0
1738 5.28 32.3572 2.48902
1739 7.04 33.6017 1.24451
1741 5.28 34.8462 2.48902
1799 5.28 34.8462 0
1543 8.8 32.3572 0
1742 8.8 32.3572 2.48902
1745 8.8 34.8462 2.48902
1800 8.8 34.8462 0
1546 12.32 32.3572 0
1743 10.56 33.6017 1.24451
1746 12.32 32.3572 2.48902
1749 12.32 34.8462 2.48902
1801 12.32 34.8462 0
1747 14.08 33.6017 1.24451
1549 15.84 32.3572 0
1750 15.84 32.3572 2.48902
1751 17.6 33.6017 1.24451
1753 15.84 34.8462 2.48902
1802 15.84 34.8462 0
1552 19.36 32.3572 0
1754 19.36 32.3572 2.48902
1757 19.36 34.8462 2.48902
1803 19.36 34.8462 0
1555 22.88 32.3572 0
1755 21.12 33.6017 1.24451
1758 22.88 32.3572 2.48902
1761 22.88 34.8462 2.48902
1804 22.88 34.8462 0
1759 24.64 33.6017 1.24451
1558 26.4 32.3572 0
1762 26.4 32.3572 2.48902
1765 26.4 34.8462 2.48902
1805 26.4 34.8462 0
1763 28.16 33.6017 1.24451
1561 29.92 32.3572 0
1766 29.92 32.3572 2.48902
1769 29.92 34.8462 2.48902
1806 29.92 34.8462 0
1767 31.68 33.6017 1.24451
1564 33.44 32.3572 0
1770 33.44 32.3572 2.48902
1771 35.2 33.6017 1.24451
1773 33.44 34.8462 2.48902
1807 33.44 34.8462 0
1567 36.96 32.3572 0
1774 36.96 32.3572 2.48902
1777 36.96 34.8462 2.48902
1808 36.96 34.8462 0
1570 40.48 32.3572 0
1775 38.72 33.6017 1.24451
1778 40.48 32.3572 2.48902
1781 40.48 34.8462 2.48902
1809 40.48 34.8462 0
1779 42.24 33.6017 1.24451
1573 44 32.3572 0
1782 44 32.3572 2.48902
1783 45.76 33.6017 1.24451
1785 44 34.8462 2.48902
1810 44 34.8462 0
1576 47.52 32.3572 0
1786 47.52 32.3572 2.48902
1789 47.52 34.8462 2.48902
1811 47.52 34.8462 0
1579 51.04 32.3572 0
1787 49.28 33.6017 1.24451
1790 51.04 32.3572 2.48902
1793 51.04 34.8462 2.48902
1812 51.04 34.8462 0
1791 52.8 33.6017 1.24451
1582 54.56 32.3572 0
1794 54.56 32.3572 2.48902
1795 56.32 33.6017 1.24451
1797 54.56 34.8462 2.48902
1813 54.56 34.8462 0
82 0 1.24451 3.73352
83 0 1.24451 6.22254
84 1.76 0 4.97803
87 1.76 2.48902 4.97803
85 3.52 1.24451 3.73352
86 3.52 1.24451 6.22254
88 5.28 0 4.97803
89 7.04 1.24451 3.73352
90 7.04 1.24451 6.22254
91 5.28 2.48902 4.97803
92 8.8 0 4.97803
95 8.8 2.48902 4.97803
93 10.56 1.24451 3.73352
94 10.56 1.24451 6.22254
96 12.32 0 4.97803
99 12.32 2.48902 4.97803
97 14.08 1.24451 3.73352
98 14.08 1.24451 6.22254
100 15.84 0 4.97803
101 17.6 1.24451 3.73352
102 17.6 1.24451 6.22254
103 15.84 2.48902 4.97803
104 19.36 0 4.97803
107 19.36 2.48902 4.97803
105 21.12 1.24451 3.73352
106 21.12 1.24451 6.22254
108 22.88 0 4.97803
111 22.88 2.48902 4.97803
109 24.64 1.24451 3.73352
110 24.64 1.24451 6.22254
112 26.4 0 4.97803
115 26.4 2.48902 4.97803
113 28.16 1.24451 3.73352
114 28.16 1.24451 6.22254
116 29.92 0 4.97803
119 29.92 2.48902 4.97803
117 31.68 1.24451 3.73352
118 31.68 1.24451 6.22254
120 33.44 0 4.97803
121 35.2 1.24451 3.73352
122 35.2 1.24451 6.22254
123 33.44 2.48902 4.97803
124 36.96 0 4.97803
127 36.96 2.48902 4.97803
125 38.72 1.24451 3.73352
126 38.72 1.24451 6.22254
128 40.48 0 4.97803
131 40.48 2.48902 4.97803
129 42.24 1.24451 3.73352
130 42.24 1.24451 6.22254
132 44 0 4.97803
133 45.76 1.24451 3.73352
134 45.76 1.24451 6.22254
135 44 2.48902 4.97803
136 47.52 0 4.97803
139 47.52 2.48902 4.97803
137 49.28 1.24451 3.73352
138 49.28 1.24451 6.22254
140 51.04 0 4.97803
143 51.04 2.48902 4.97803
141 52.8 1.24451 3.73352
142 52.8 1.24451 6.22254
144 54.56 0 4.97803
145 56.32 1.24451 3.73352
146 56.32 1.24451 6.22254
147 54.56 2.48902 4.97803
149 0 3.73352 3.73352
280 0 3.73352 6.22254
348 1.82037 5.01199 5.01755
152 3.52 3.73352 3.73352
283 3.52 3.73352 6.22254
156 7.04 3.73352 3.73352
287 7.04 3.73352 6.22254
352 5.24968 4.9553 4.97564
356 8.71676 5.03039 5.0761
160 10.56 3.73352 3.73352
291 10.56 3.73352 6.22254
360 12.2764 4.95823 4.9895
164 14.08 3.73352 3.73352
295 14.08 3.73352 6.22254
168 17.6 3.73352 3.73352
299 17.6 3.73352 6.22254
364 15.8546 4.88869 4.96349
368 19.3071 5.04167 4.91992
172 21.12 3.73352 3.73352
303 21.12 3.73352 6.22254
372 22.8025 4.97562 5.00673
176 24.64 3.73352 3.73352
307 24.64 3.73352 6.22254
376 26.4867 4.9384 4.98492
180 28.16 3.73352 3.73352
311 28.16 3.73352 6.22254
380 29.9204 4.93025 5.06926
184 31.68 3.73352 3.73352
315 31.68 3.73352 6.22254
188 35.2 3.73352 3.73352
319 35.2 3.73352 6.22254
384 33.3661 5.01666 5.07206
388 36.9729 4.97333 5.04939
192 38.72 3.73352 3.73352
323 38.72 3.73352 6.22254
392 40.5341 5.01458 5.03352
196 42.24 3.73352 3.73352
327 42.24 3.73352 6.22254
200 45.76 3.73352 3.73352
331 45.76 3.73352 6.22254
396 43.9484 5.05549 4.99734
400 47.5297 4.97895 4.97337
204 49.28 3.73352 3.73352
335 49.28 3.73352 6.22254
404 51.0074 4.94816 4.9409
208 52.8 3.73352 3.73352
339 52.8 3.73352 6.22254
212 56.32 3.73352 3.73352
343 56.32 3.73352 6.22254
408 54.5819 4.98215 4.8293
346 0.0767707 6.17708 3.80198
347 -0.0439972 6.18871 6.29679
351 1.79043 7.51445 4.99148
349 3.3959 6.13485 3.69696
350 3.57001 6.26352 6.21291
353 6.99401 6.24761 3.79003
354 7.00064 6.2476 6.3455
355 5.14624 7.46282 4.89641
359 8.74977 7.43567 5.053
357 10.5113 6.13432 3.76093
358 10.549 6.11828 6.25442
363 12.2473 7.46989 4.97248
361 14.1289 6.187 3.72725
362 14.033 6.26017 6.22224
365 17.4312 6.21733 3.66898
366 17.4414 6.3112 6.20946
367 15.784 7.5084 5.05145
371 19.2642 7.55668 4.89015
369 21.0871 6.2783 3.7004
370 21.0067 6.26619 6.18368
375 22.8315 7.51145 4.89756
373 24.6251 6.13909 3.74415
374 24.5758 6.19538 6.25197
379 26.3647 7.4997 5.01118
377 28.2394 6.18885 3.80748
378 28.1956 6.29556 6.21449
383 29.9623 7.52491 5.0364
381 31.6943 6.23455 3.71544
382 31.689 6.19494 6.15038
385 35.2133 6.24503 3.78019
386 35.159 6.21044 6.25614
387 33.405 7.48808 5.03443
391 36.9367 7.49756 4.93571
389 38.6365 6.19792 3.7442
390 38.7357 6.19741 6.31262
395 40.4279 7.51359 4.91759
393 42.2763 6.2333 3.67101
394 42.2791 6.33406 6.14322
397 45.7081 6.18864 3.77666
398 45.7505 6.15077 6.23028
399 43.9486 7.55601 4.98024
403 47.4941 7.41336 4.95712
401 49.3363 6.20382 3.71326
402 49.3022 6.06211 6.3003
407 51.0666 7.48752 4.9447
405 52.8039 6.17454 3.55987
406 52.7949 6.16409 6.15227
409 56.4247 6.30385 3.64115
410 56.4031 6.28023 6.16312
411 54.6104 7.35132 4.87215
413 -0.110097 8.79661 3.64102
544 0.044438 8.6772 6.17116
612 1.69804 9.9809 4.88568
416 3.39 8.72897 3.67844
547 3.52765 8.67211 6.16064
420 7.00435 8.6334 3.71002
551 6.92561 8.62786 6.21612
616 5.24082 9.95042 4.94923
620 8.6705 9.9521 4.89137
424 10.4745 8.65479 3.72999
555 10.4464 8.66544 6.18062
624 12.1948 9.96553 4.99814
428 13.9977 8.72941 3.80297
559 14.0098 8.81471 6.23989
432 17.4573 8.61932 3.64896
563 17.5032 8.66891 6.1966
628 15.8438 10.0235 5.0606
632 19.2195 9.97822 4.95155
436 21.1404 8.79399 3.70098
567 20.9825 8.63201 6.19287
636 22.8995 10.0025 4.84835
440 24.6568 8.69098 3.67441
571 24.5658 8.77729 6.2755
640 26.5164 9.96034 4.9022
444 28.2225 8.64924 3.81658
575 28.24 8.76465 6.28344
644 29.9838 9.99296 5.03033
448 31.6906 8.62747 3.70659
579 31.7286 8.63869 6.35618
648 33.4137 9.93782 4.92496
452 35.2846 8.78177 3.77714
583 35.1275 8.79915 6.22525
652 36.9699 9.98861 5.02931
456 38.7312 8.69047 3.67219
587 38.7208 8.82091 6.11407
656 40.4554 10.043 5.01831
460 42.2411 8.75296 3.66711
591 42.2105 8.86933 6.2018
464 45.7616 8.66169 3.68389
595 45.7556 8.62261 6.22149
660 44.0148 10.0521 4.94566
664 47.6079 9.88593 4.94144
468 49.2004 8.60579 3.61337
599 49.3681 8.68238 6.17163
668 51.0883 9.95952 4.8738
472 52.8313 8.68451 3.61122
603 52.9243 8.64588 6.10379
476 56.25 8.78915 3.68034
607 56.375 8.71165 6.08318
672 54.6203 9.97906 4.81202
610 -0.190804 11.2507 3.56176
611 -0.119574 11.0448 6.01445
615 1.76061 12.3766 4.96526
613 3.51643 11.258 3.70683
614 3.40524 11.1344 6.20453
617 6.89857 11.1618 3.72037
618 7.03419 11.1719 6.31106
619 5.18183 12.5297 5.0067
623 8.72461 12.4598 5.01082
621 10.5261 11.1907 3.71561
622 10.4817 11.1934 6.21989
627 12.2935 12.4781 5.02082
625 14.146 11.1899 3.72098
626 14.0516 11.2193 6.13629
629 17.5425 11.2178 3.67991
630 17.5949 11.2143 6.2481
631 15.7474 12.4033 4.84998
635 19.3353 12.5013 4.89353
633 21.0791 11.2372 3.65005
634 21.1184 11.2348 6.07525
639 22.876 12.4665 4.84767
637 24.6281 11.1712 3.6364
638 24.7255 11.1384 6.12854
643 26.2396 12.5248 4.83206
641 28.2314 11.179 3.60022
642 28.172 11.2682 6.14697
647 29.8632 12.5486 4.95711
645 31.6598 11.2108 3.76635
646 31.6928 11.108 6.2076
651 33.3345 12.4078 4.95307
649 35.1882 11.1865 3.86827
650 35.1232 11.283 6.34837
655 36.8577 12.4392 5.11803
653 38.6553 11.0775 3.85351
654 38.6794 11.3761 6.38172
659 40.459 12.5024 5.07039
657 42.2346 11.2116 3.78238
658 42.3659 11.3237 6.34961
661 45.77 11.2517 3.67458
662 45.9162 11.2178 6.19518
663 44.0849 12.5351 4.91492
667 47.6083 12.3504 4.92864
665 49.346 11.154 3.72909
666 49.3276 11.0856 6.231
671 50.994 12.4272 4.84513
669 52.8934 11.1541 3.61307
670 52.7519 11.102 6.07174
673 56.349 11.2739 3.5546
674 56.3718 11.2021 6.10156
675 54.5456 12.4464 4.9386
677 0.167284 13.6978 3.56021
808 -0.0648525 13.6098 6.0333
876 1.78167 14.9461 4.94181
680 3.50431 13.692 3.60331
811 3.49137 13.7027 6.13345
684 7.05687 13.6479 3.69719
815 6.97216 13.6941 6.18104
880 5.2758 14.9856 4.98769
884 8.85865 14.9574 4.99675
688 10.5351 13.6942 3.82322
819 10.6037 13.748 6.25714
888 12.3596 14.9632 4.79811
692 14.0044 13.707 3.6028
823 14.0317 13.7223 6.11646
696 17.5478 13.6963 3.65621
827 17.5424 13.6514 6.06275
892 15.7619 14.9281 4.84766
896 19.3151 14.9693 4.90578
700 21.1524 13.7158 3.53059
831 21.1488 13.7658 6.05236
900 22.8895 14.9838 5.01224
704 24.4823 13.7468 3.6697
835 24.5266 13.6617 6.13269
904 26.2553 15.0099 4.94805
839 28.0143 13.6464 6.20975
905 28.1412 16.0371 3.62305
708 28.1583 13.6261 3.7129
908 29.7373 14.9628 5.04488
712 31.6432 13.7167 3.79982
843 31.6287 13.756 6.29289
912 33.3879 15.0306 5.09533
716 35.0693 13.7579 3.83083
847 35.0917 13.7087 6.24995
916 36.9379 14.9514 5.05737
720 38.6328 13.6311 3.82594
851 38.6676 13.7784 6.32398
920 40.5354 14.8535 5.16908
917 38.8101 16.0639 3.84747
724 42.2853 13.5741 3.81564
855 42.3326 13.726 6.31769
728 45.9086 13.7166 3.77164
859 45.8029 13.6796 6.20893
924 44.0312 14.9269 5.08606
928 47.5676 14.9362 5.10313
732 49.2179 13.626 3.80951
863 49.2605 13.6767 6.27714
932 50.9189 14.949 4.94046
736 52.7631 13.6361 3.67825
867 52.764 13.6641 6.15497
933 52.7334 16.0786 3.72239
740 56.3047 13.7071 3.71709
871 56.3361 13.5098 6.25474
936 54.5261 14.8858 4.97409
938 56.3021 15.921 6.10572
937 56.2402 16.0075 3.65789
874 -0.0112236 16.1625 3.55382
875 -0.026172 16.0843 6.16783
879 1.52816 17.4422 4.82383
1072 -0.0758605 18.6169 6.063
877 3.48498 16.1776 3.61159
878 3.49199 16.1953 6.14474
944 3.50625 18.5293 3.70541
1075 3.49765 18.6487 6.13371
881 7.05161 16.1237 3.59667
882 7.00023 16.1412 6.13868
883 5.30974 17.4286 4.94209
948 7.06613 18.7398 3.63672
1079 7.04672 18.6538 6.13277
887 8.73625 17.3718 4.91981
885 10.6092 16.2356 3.72184
886 10.5853 16.1841 6.18441
891 12.3803 17.4647 4.97196
952 10.5315 18.6193 3.84249
1083 10.6074 18.7447 6.26844
889 14.1968 16.3464 3.60473
890 14.1513 16.2417 6.15359
956 14.1694 18.6768 3.75131
1087 14.1887 18.7365 6.22126
893 17.4967 16.1017 3.76789
894 17.429 16.162 6.26145
895 15.8243 17.4763 4.93088
960 17.5667 18.6742 3.84191
899 19.1345 17.4064 5.07123
898 21.0606 16.3147 6.21679
897 21.0843 16.1501 3.87213
903 22.9072 17.5276 5.12714
964 20.9456 18.5949 3.82487
901 24.6064 16.2472 3.75112
902 24.6292 16.2112 6.24401
1099 24.5585 18.7277 6.24112
968 24.6157 18.7136 3.84348
906 27.9321 16.1861 6.26834
907 26.3434 17.5053 4.98113
972 28.1276 18.6277 3.73949
911 29.7363 17.3512 5.05708
909 31.6149 16.2321 3.78765
910 31.528 16.1566 6.22738
1107 31.6792 18.6457 6.23244
976 31.5995 18.6408 3.81739
915 33.3616 17.4575 5.03868
913 35.1981 16.1624 3.76384
914 35.1526 16.1538 6.35988
980 35.1428 18.6377 3.71214
1111 35.0834 18.6896 6.19365
919 36.9479 17.3971 4.98522
918 38.84 16.1965 6.24049
923 40.6464 17.3496 5.02325
984 38.817 18.5428 3.88065
1115 38.8511 18.6169 6.20458
921 42.3412 16.1139 3.84029
922 42.2503 16.1565 6.31699
988 42.3498 18.5891 3.75789
1119 42.3981 18.6624 6.29207
925 45.8541 16.2333 3.76833
926 45.7591 16.1806 6.29145
927 44.0513 17.4422 5.0348
992 45.6487 18.5701 3.75751
931 47.4499 17.496 5.01201
929 49.1758 16.2009 3.75179
930 49.2237 16.1245 6.2275
935 50.9027 17.4388 5.04058
996 49.1378 18.6601 3.77236
1127 49.1404 18.6792 6.31201
934 52.7441 16.1283 6.12866
1000 52.7886 18.5072 4.00079
1131 52.8309 18.6189 6.3629
939 54.5866 17.22 4.95338
1004 56.436 18.3695 3.75103
1135 56.355 18.5046 6.22625
941 -0.126341 18.7849 3.57974
1138 -0.0435591 21.1636 3.57732
1139 -0.0423124 21.1508 6.13024
1140 1.69822 19.9034 4.82178
1141 3.47954 21.1826 3.62631
1142 3.50782 21.2288 6.09553
1144 5.2669 19.8808 4.8667
1145 6.98535 21.1302 3.70342
1146 7.09204 21.2074 6.19536
1148 8.83977 19.8986 5.05894
1149 10.5791 21.0944 3.71044
1150 10.5634 21.2518 6.14536
1152 12.388 19.9107 4.92415
1153 14.1157 21.1269 3.68434
1154 14.0467 21.2386 6.17406
1091 17.5445 18.8097 6.25018
1156 15.8598 20.0713 5.09463
1157 17.655 21.2283 3.71712
1158 17.5687 21.302 6.23291
1160 19.4088 19.9314 5.0147
1095 21.0249 18.7653 6.25308
1161 21.0653 21.157 3.87488
1162 21.123 21.2223 6.23872
1164 22.8193 19.9899 5.03782
1165 24.7379 21.2361 3.63241
1166 24.6817 21.2372 6.18987
1168 26.4819 20.0253 4.88069
1170 28.1478 21.1303 6.2756
1103 28.1849 18.7808 6.30039
1169 28.2386 21.183 3.73616
1172 29.8389 19.8659 5.08017
1173 31.6242 21.1806 3.82933
1174 31.6231 21.1767 6.2978
1176 33.3992 19.8912 4.94339
1177 35.2636 21.1065 3.92435
1178 35.2155 21.0765 6.45253
1180 36.9131 19.7209 5.01319
1181 38.7234 21.0492 3.85347
1182 38.6902 21.12 6.25426
1184 40.6183 19.7973 5.06661
1185 42.1918 21.1333 3.83641
1186 42.307 21.2523 6.39116
1123 45.6791 18.7649 6.25328
1188 43.9896 19.9835 5.01631
1189 45.7531 21.1328 3.69542
1190 45.7223 21.2829 6.18604
1192 47.3433 19.9025 4.98592
1193 49.2729 21.1319 3.81221
1194 49.2725 21.2795 6.19502
1196 50.9863 19.9227 5.16747
1197 52.8969 21.0113 3.93198
1198 52.9481 20.9973 6.24928
1200 54.6749 19.6607 5.06966
1201 56.3622 20.8683 3.77054
1202 56.4325 21.0076 6.26353
1143 1.67967 22.4594 4.80825
1205 -0.173268 23.5843 3.65043
1336 -0.033338 23.7723 6.14047
1208 3.5678 23.7236 3.69797
1339 3.49142 23.6463 6.21047
1147 5.20787 22.3312 4.8604
1212 6.98843 23.6433 3.67775
1343 7.11904 23.6568 6.116
1151 8.77321 22.3392 4.95862
1155 12.2956 22.4015 5.00647
1216 10.6292 23.5857 3.81011
1347 10.5984 23.6274 6.22534
1220 14.1124 23.7073 3.75393
1351 14.0307 23.7224 6.32649
1159 15.7899 22.4796 5.07509
1224 17.5997 23.6824 3.80374
1355 17.6188 23.7575 6.26481
1163 19.3534 22.4038 5.081
1167 22.8473 22.4103 5.02775
1228 21.1132 23.7057 3.84893
1359 21.1632 23.661 6.30781